+ 0.5 0 1 cbr 500 ------- 0 0.0 2.0 0 0
- 0.5 0 1 cbr 500 ------- 0 0.0 2.0 0 0
+ 0.505 0 1 cbr 500 ------- 0 0.0 2.0 1 1
- 0.505 0 1 cbr 500 ------- 0 0.0 2.0 1 1
+ 0.51 0 1 cbr 500 ------- 0 0.0 2.0 2 2
- 0.51 0 1 cbr 500 ------- 0 0.0 2.0 2 2
r 0.514 0 1 cbr 500 ------- 0 0.0 2.0 0 0
+ 0.514 1 2 cbr 500 ------- 0 0.0 2.0 0 0
- 0.514 1 2 cbr 500 ------- 0 0.0 2.0 0 0
+ 0.515 0 1 cbr 500 ------- 0 0.0 2.0 3 3
- 0.515 0 1 cbr 500 ------- 0 0.0 2.0 3 3
r 0.519 0 1 cbr 500 ------- 0 0.0 2.0 1 1
+ 0.519 1 2 cbr 500 ------- 0 0.0 2.0 1 1
+ 0.52 0 1 cbr 500 ------- 0 0.0 2.0 4 4
- 0.52 0 1 cbr 500 ------- 0 0.0 2.0 4 4
- 0.521813 1 2 cbr 500 ------- 0 0.0 2.0 1 1
r 0.524 0 1 cbr 500 ------- 0 0.0 2.0 2 2
+ 0.524 1 2 cbr 500 ------- 0 0.0 2.0 2 2
+ 0.525 0 1 cbr 500 ------- 0 0.0 2.0 5 5
- 0.525 0 1 cbr 500 ------- 0 0.0 2.0 5 5
r 0.529 0 1 cbr 500 ------- 0 0.0 2.0 3 3
+ 0.529 1 2 cbr 500 ------- 0 0.0 2.0 3 3
- 0.529625 1 2 cbr 500 ------- 0 0.0 2.0 2 2
+ 0.53 0 1 cbr 500 ------- 0 0.0 2.0 6 6
- 0.53 0 1 cbr 500 ------- 0 0.0 2.0 6 6
r 0.531813 1 2 cbr 500 ------- 0 0.0 2.0 0 0
r 0.534 0 1 cbr 500 ------- 0 0.0 2.0 4 4
+ 0.534 1 2 cbr 500 ------- 0 0.0 2.0 4 4
+ 0.535 0 1 cbr 500 ------- 0 0.0 2.0 7 7
- 0.535 0 1 cbr 500 ------- 0 0.0 2.0 7 7
- 0.537438 1 2 cbr 500 ------- 0 0.0 2.0 3 3
r 0.539 0 1 cbr 500 ------- 0 0.0 2.0 5 5
+ 0.539 1 2 cbr 500 ------- 0 0.0 2.0 5 5
r 0.539625 1 2 cbr 500 ------- 0 0.0 2.0 1 1
+ 0.54 0 1 cbr 500 ------- 0 0.0 2.0 8 8
- 0.54 0 1 cbr 500 ------- 0 0.0 2.0 8 8
r 0.544 0 1 cbr 500 ------- 0 0.0 2.0 6 6
+ 0.544 1 2 cbr 500 ------- 0 0.0 2.0 6 6
+ 0.545 0 1 cbr 500 ------- 0 0.0 2.0 9 9
- 0.545 0 1 cbr 500 ------- 0 0.0 2.0 9 9
- 0.54525 1 2 cbr 500 ------- 0 0.0 2.0 4 4
r 0.547438 1 2 cbr 500 ------- 0 0.0 2.0 2 2
r 0.549 0 1 cbr 500 ------- 0 0.0 2.0 7 7
+ 0.549 1 2 cbr 500 ------- 0 0.0 2.0 7 7
+ 0.55 0 1 cbr 500 ------- 0 0.0 2.0 10 10
- 0.55 0 1 cbr 500 ------- 0 0.0 2.0 10 10
- 0.553063 1 2 cbr 500 ------- 0 0.0 2.0 5 5
r 0.554 0 1 cbr 500 ------- 0 0.0 2.0 8 8
+ 0.554 1 2 cbr 500 ------- 0 0.0 2.0 8 8
+ 0.555 0 1 cbr 500 ------- 0 0.0 2.0 11 11
- 0.555 0 1 cbr 500 ------- 0 0.0 2.0 11 11
r 0.55525 1 2 cbr 500 ------- 0 0.0 2.0 3 3
r 0.559 0 1 cbr 500 ------- 0 0.0 2.0 9 9
+ 0.559 1 2 cbr 500 ------- 0 0.0 2.0 9 9
+ 0.56 0 1 cbr 500 ------- 0 0.0 2.0 12 12
- 0.56 0 1 cbr 500 ------- 0 0.0 2.0 12 12
- 0.560875 1 2 cbr 500 ------- 0 0.0 2.0 6 6
r 0.563063 1 2 cbr 500 ------- 0 0.0 2.0 4 4
r 0.564 0 1 cbr 500 ------- 0 0.0 2.0 10 10
+ 0.564 1 2 cbr 500 ------- 0 0.0 2.0 10 10
+ 0.565 0 1 cbr 500 ------- 0 0.0 2.0 13 13
- 0.565 0 1 cbr 500 ------- 0 0.0 2.0 13 13
- 0.568688 1 2 cbr 500 ------- 0 0.0 2.0 7 7
r 0.569 0 1 cbr 500 ------- 0 0.0 2.0 11 11
+ 0.569 1 2 cbr 500 ------- 0 0.0 2.0 11 11
+ 0.57 0 1 cbr 500 ------- 0 0.0 2.0 14 14
- 0.57 0 1 cbr 500 ------- 0 0.0 2.0 14 14
r 0.570875 1 2 cbr 500 ------- 0 0.0 2.0 5 5
r 0.574 0 1 cbr 500 ------- 0 0.0 2.0 12 12
+ 0.574 1 2 cbr 500 ------- 0 0.0 2.0 12 12
+ 0.575 0 1 cbr 500 ------- 0 0.0 2.0 15 15
- 0.575 0 1 cbr 500 ------- 0 0.0 2.0 15 15
- 0.5765 1 2 cbr 500 ------- 0 0.0 2.0 8 8
r 0.578688 1 2 cbr 500 ------- 0 0.0 2.0 6 6
r 0.579 0 1 cbr 500 ------- 0 0.0 2.0 13 13
+ 0.579 1 2 cbr 500 ------- 0 0.0 2.0 13 13
+ 0.58 0 1 cbr 500 ------- 0 0.0 2.0 16 16
- 0.58 0 1 cbr 500 ------- 0 0.0 2.0 16 16
r 0.584 0 1 cbr 500 ------- 0 0.0 2.0 14 14
+ 0.584 1 2 cbr 500 ------- 0 0.0 2.0 14 14
- 0.584313 1 2 cbr 500 ------- 0 0.0 2.0 9 9
+ 0.585 0 1 cbr 500 ------- 0 0.0 2.0 17 17
- 0.585 0 1 cbr 500 ------- 0 0.0 2.0 17 17
r 0.5865 1 2 cbr 500 ------- 0 0.0 2.0 7 7
r 0.589 0 1 cbr 500 ------- 0 0.0 2.0 15 15
+ 0.589 1 2 cbr 500 ------- 0 0.0 2.0 15 15
+ 0.59 0 1 cbr 500 ------- 0 0.0 2.0 18 18
- 0.59 0 1 cbr 500 ------- 0 0.0 2.0 18 18
- 0.592125 1 2 cbr 500 ------- 0 0.0 2.0 10 10
r 0.594 0 1 cbr 500 ------- 0 0.0 2.0 16 16
+ 0.594 1 2 cbr 500 ------- 0 0.0 2.0 16 16
r 0.594313 1 2 cbr 500 ------- 0 0.0 2.0 8 8
+ 0.595 0 1 cbr 500 ------- 0 0.0 2.0 19 19
- 0.595 0 1 cbr 500 ------- 0 0.0 2.0 19 19
r 0.599 0 1 cbr 500 ------- 0 0.0 2.0 17 17
+ 0.599 1 2 cbr 500 ------- 0 0.0 2.0 17 17
- 0.599938 1 2 cbr 500 ------- 0 0.0 2.0 11 11
+ 0.6 0 1 cbr 500 ------- 0 0.0 2.0 20 20
- 0.6 0 1 cbr 500 ------- 0 0.0 2.0 20 20
r 0.602125 1 2 cbr 500 ------- 0 0.0 2.0 9 9
r 0.604 0 1 cbr 500 ------- 0 0.0 2.0 18 18
+ 0.604 1 2 cbr 500 ------- 0 0.0 2.0 18 18
+ 0.605 0 1 cbr 500 ------- 0 0.0 2.0 21 21
- 0.605 0 1 cbr 500 ------- 0 0.0 2.0 21 21
- 0.60775 1 2 cbr 500 ------- 0 0.0 2.0 12 12
r 0.609 0 1 cbr 500 ------- 0 0.0 2.0 19 19
+ 0.609 1 2 cbr 500 ------- 0 0.0 2.0 19 19
r 0.609938 1 2 cbr 500 ------- 0 0.0 2.0 10 10
+ 0.61 0 1 cbr 500 ------- 0 0.0 2.0 22 22
- 0.61 0 1 cbr 500 ------- 0 0.0 2.0 22 22
r 0.614 0 1 cbr 500 ------- 0 0.0 2.0 20 20
+ 0.614 1 2 cbr 500 ------- 0 0.0 2.0 20 20
+ 0.615 0 1 cbr 500 ------- 0 0.0 2.0 23 23
- 0.615 0 1 cbr 500 ------- 0 0.0 2.0 23 23
- 0.615563 1 2 cbr 500 ------- 0 0.0 2.0 13 13
r 0.61775 1 2 cbr 500 ------- 0 0.0 2.0 11 11
r 0.619 0 1 cbr 500 ------- 0 0.0 2.0 21 21
+ 0.619 1 2 cbr 500 ------- 0 0.0 2.0 21 21
+ 0.62 0 1 cbr 500 ------- 0 0.0 2.0 24 24
- 0.62 0 1 cbr 500 ------- 0 0.0 2.0 24 24
- 0.623375 1 2 cbr 500 ------- 0 0.0 2.0 14 14
r 0.624 0 1 cbr 500 ------- 0 0.0 2.0 22 22
+ 0.624 1 2 cbr 500 ------- 0 0.0 2.0 22 22
+ 0.625 0 1 cbr 500 ------- 0 0.0 2.0 25 25
- 0.625 0 1 cbr 500 ------- 0 0.0 2.0 25 25
r 0.625563 1 2 cbr 500 ------- 0 0.0 2.0 12 12
r 0.629 0 1 cbr 500 ------- 0 0.0 2.0 23 23
+ 0.629 1 2 cbr 500 ------- 0 0.0 2.0 23 23
+ 0.63 0 1 cbr 500 ------- 0 0.0 2.0 26 26
- 0.63 0 1 cbr 500 ------- 0 0.0 2.0 26 26
- 0.631188 1 2 cbr 500 ------- 0 0.0 2.0 15 15
r 0.633375 1 2 cbr 500 ------- 0 0.0 2.0 13 13
r 0.634 0 1 cbr 500 ------- 0 0.0 2.0 24 24
+ 0.634 1 2 cbr 500 ------- 0 0.0 2.0 24 24
+ 0.635 0 1 cbr 500 ------- 0 0.0 2.0 27 27
- 0.635 0 1 cbr 500 ------- 0 0.0 2.0 27 27
- 0.639 1 2 cbr 500 ------- 0 0.0 2.0 16 16
r 0.639 0 1 cbr 500 ------- 0 0.0 2.0 25 25
+ 0.639 1 2 cbr 500 ------- 0 0.0 2.0 25 25
+ 0.64 0 1 cbr 500 ------- 0 0.0 2.0 28 28
- 0.64 0 1 cbr 500 ------- 0 0.0 2.0 28 28
r 0.641188 1 2 cbr 500 ------- 0 0.0 2.0 14 14
r 0.644 0 1 cbr 500 ------- 0 0.0 2.0 26 26
+ 0.644 1 2 cbr 500 ------- 0 0.0 2.0 26 26
+ 0.645 0 1 cbr 500 ------- 0 0.0 2.0 29 29
- 0.645 0 1 cbr 500 ------- 0 0.0 2.0 29 29
- 0.646813 1 2 cbr 500 ------- 0 0.0 2.0 17 17
r 0.649 1 2 cbr 500 ------- 0 0.0 2.0 15 15
r 0.649 0 1 cbr 500 ------- 0 0.0 2.0 27 27
+ 0.649 1 2 cbr 500 ------- 0 0.0 2.0 27 27
+ 0.65 0 1 cbr 500 ------- 0 0.0 2.0 30 30
- 0.65 0 1 cbr 500 ------- 0 0.0 2.0 30 30
r 0.654 0 1 cbr 500 ------- 0 0.0 2.0 28 28
+ 0.654 1 2 cbr 500 ------- 0 0.0 2.0 28 28
- 0.654625 1 2 cbr 500 ------- 0 0.0 2.0 18 18
+ 0.655 0 1 cbr 500 ------- 0 0.0 2.0 31 31
- 0.655 0 1 cbr 500 ------- 0 0.0 2.0 31 31
r 0.656813 1 2 cbr 500 ------- 0 0.0 2.0 16 16
r 0.659 0 1 cbr 500 ------- 0 0.0 2.0 29 29
+ 0.659 1 2 cbr 500 ------- 0 0.0 2.0 29 29
+ 0.66 0 1 cbr 500 ------- 0 0.0 2.0 32 32
- 0.66 0 1 cbr 500 ------- 0 0.0 2.0 32 32
- 0.662438 1 2 cbr 500 ------- 0 0.0 2.0 19 19
r 0.664 0 1 cbr 500 ------- 0 0.0 2.0 30 30
+ 0.664 1 2 cbr 500 ------- 0 0.0 2.0 30 30
r 0.664625 1 2 cbr 500 ------- 0 0.0 2.0 17 17
+ 0.665 0 1 cbr 500 ------- 0 0.0 2.0 33 33
- 0.665 0 1 cbr 500 ------- 0 0.0 2.0 33 33
r 0.669 0 1 cbr 500 ------- 0 0.0 2.0 31 31
+ 0.669 1 2 cbr 500 ------- 0 0.0 2.0 31 31
+ 0.67 0 1 cbr 500 ------- 0 0.0 2.0 34 34
- 0.67 0 1 cbr 500 ------- 0 0.0 2.0 34 34
- 0.67025 1 2 cbr 500 ------- 0 0.0 2.0 20 20
r 0.672438 1 2 cbr 500 ------- 0 0.0 2.0 18 18
r 0.674 0 1 cbr 500 ------- 0 0.0 2.0 32 32
+ 0.674 1 2 cbr 500 ------- 0 0.0 2.0 32 32
+ 0.675 0 1 cbr 500 ------- 0 0.0 2.0 35 35
- 0.675 0 1 cbr 500 ------- 0 0.0 2.0 35 35
- 0.678063 1 2 cbr 500 ------- 0 0.0 2.0 21 21
r 0.679 0 1 cbr 500 ------- 0 0.0 2.0 33 33
+ 0.679 1 2 cbr 500 ------- 0 0.0 2.0 33 33
+ 0.68 0 1 cbr 500 ------- 0 0.0 2.0 36 36
- 0.68 0 1 cbr 500 ------- 0 0.0 2.0 36 36
r 0.68025 1 2 cbr 500 ------- 0 0.0 2.0 19 19
r 0.684 0 1 cbr 500 ------- 0 0.0 2.0 34 34
+ 0.684 1 2 cbr 500 ------- 0 0.0 2.0 34 34
+ 0.685 0 1 cbr 500 ------- 0 0.0 2.0 37 37
- 0.685 0 1 cbr 500 ------- 0 0.0 2.0 37 37
- 0.685875 1 2 cbr 500 ------- 0 0.0 2.0 22 22
r 0.688063 1 2 cbr 500 ------- 0 0.0 2.0 20 20
r 0.689 0 1 cbr 500 ------- 0 0.0 2.0 35 35
+ 0.689 1 2 cbr 500 ------- 0 0.0 2.0 35 35
+ 0.69 0 1 cbr 500 ------- 0 0.0 2.0 38 38
- 0.69 0 1 cbr 500 ------- 0 0.0 2.0 38 38
- 0.693688 1 2 cbr 500 ------- 0 0.0 2.0 23 23
r 0.694 0 1 cbr 500 ------- 0 0.0 2.0 36 36
+ 0.694 1 2 cbr 500 ------- 0 0.0 2.0 36 36
+ 0.695 0 1 cbr 500 ------- 0 0.0 2.0 39 39
- 0.695 0 1 cbr 500 ------- 0 0.0 2.0 39 39
r 0.695875 1 2 cbr 500 ------- 0 0.0 2.0 21 21
r 0.699 0 1 cbr 500 ------- 0 0.0 2.0 37 37
+ 0.699 1 2 cbr 500 ------- 0 0.0 2.0 37 37
+ 0.7 0 1 cbr 500 ------- 0 0.0 2.0 40 40
- 0.7 0 1 cbr 500 ------- 0 0.0 2.0 40 40
- 0.7015 1 2 cbr 500 ------- 0 0.0 2.0 24 24
r 0.703688 1 2 cbr 500 ------- 0 0.0 2.0 22 22
r 0.704 0 1 cbr 500 ------- 0 0.0 2.0 38 38
+ 0.704 1 2 cbr 500 ------- 0 0.0 2.0 38 38
+ 0.705 0 1 cbr 500 ------- 0 0.0 2.0 41 41
- 0.705 0 1 cbr 500 ------- 0 0.0 2.0 41 41
r 0.709 0 1 cbr 500 ------- 0 0.0 2.0 39 39
+ 0.709 1 2 cbr 500 ------- 0 0.0 2.0 39 39
- 0.709313 1 2 cbr 500 ------- 0 0.0 2.0 25 25
+ 0.71 0 1 cbr 500 ------- 0 0.0 2.0 42 42
- 0.71 0 1 cbr 500 ------- 0 0.0 2.0 42 42
r 0.7115 1 2 cbr 500 ------- 0 0.0 2.0 23 23
r 0.714 0 1 cbr 500 ------- 0 0.0 2.0 40 40
+ 0.714 1 2 cbr 500 ------- 0 0.0 2.0 40 40
+ 0.715 0 1 cbr 500 ------- 0 0.0 2.0 43 43
- 0.715 0 1 cbr 500 ------- 0 0.0 2.0 43 43
- 0.717125 1 2 cbr 500 ------- 0 0.0 2.0 26 26
r 0.719 0 1 cbr 500 ------- 0 0.0 2.0 41 41
+ 0.719 1 2 cbr 500 ------- 0 0.0 2.0 41 41
r 0.719313 1 2 cbr 500 ------- 0 0.0 2.0 24 24
+ 0.72 0 1 cbr 500 ------- 0 0.0 2.0 44 44
- 0.72 0 1 cbr 500 ------- 0 0.0 2.0 44 44
r 0.724 0 1 cbr 500 ------- 0 0.0 2.0 42 42
+ 0.724 1 2 cbr 500 ------- 0 0.0 2.0 42 42
- 0.724938 1 2 cbr 500 ------- 0 0.0 2.0 27 27
+ 0.725 0 1 cbr 500 ------- 0 0.0 2.0 45 45
- 0.725 0 1 cbr 500 ------- 0 0.0 2.0 45 45
r 0.727125 1 2 cbr 500 ------- 0 0.0 2.0 25 25
r 0.729 0 1 cbr 500 ------- 0 0.0 2.0 43 43
+ 0.729 1 2 cbr 500 ------- 0 0.0 2.0 43 43
+ 0.73 0 1 cbr 500 ------- 0 0.0 2.0 46 46
- 0.73 0 1 cbr 500 ------- 0 0.0 2.0 46 46
- 0.73275 1 2 cbr 500 ------- 0 0.0 2.0 28 28
r 0.734 0 1 cbr 500 ------- 0 0.0 2.0 44 44
+ 0.734 1 2 cbr 500 ------- 0 0.0 2.0 44 44
r 0.734938 1 2 cbr 500 ------- 0 0.0 2.0 26 26
+ 0.735 0 1 cbr 500 ------- 0 0.0 2.0 47 47
- 0.735 0 1 cbr 500 ------- 0 0.0 2.0 47 47
r 0.739 0 1 cbr 500 ------- 0 0.0 2.0 45 45
+ 0.739 1 2 cbr 500 ------- 0 0.0 2.0 45 45
+ 0.74 0 1 cbr 500 ------- 0 0.0 2.0 48 48
- 0.74 0 1 cbr 500 ------- 0 0.0 2.0 48 48
- 0.740563 1 2 cbr 500 ------- 0 0.0 2.0 29 29
r 0.74275 1 2 cbr 500 ------- 0 0.0 2.0 27 27
r 0.744 0 1 cbr 500 ------- 0 0.0 2.0 46 46
+ 0.744 1 2 cbr 500 ------- 0 0.0 2.0 46 46
+ 0.745 0 1 cbr 500 ------- 0 0.0 2.0 49 49
- 0.745 0 1 cbr 500 ------- 0 0.0 2.0 49 49
- 0.748375 1 2 cbr 500 ------- 0 0.0 2.0 30 30
r 0.749 0 1 cbr 500 ------- 0 0.0 2.0 47 47
+ 0.749 1 2 cbr 500 ------- 0 0.0 2.0 47 47
+ 0.75 0 1 cbr 500 ------- 0 0.0 2.0 50 50
- 0.75 0 1 cbr 500 ------- 0 0.0 2.0 50 50
r 0.750563 1 2 cbr 500 ------- 0 0.0 2.0 28 28
r 0.754 0 1 cbr 500 ------- 0 0.0 2.0 48 48
+ 0.754 1 2 cbr 500 ------- 0 0.0 2.0 48 48
+ 0.755 0 1 cbr 500 ------- 0 0.0 2.0 51 51
- 0.755 0 1 cbr 500 ------- 0 0.0 2.0 51 51
- 0.756188 1 2 cbr 500 ------- 0 0.0 2.0 31 31
r 0.758375 1 2 cbr 500 ------- 0 0.0 2.0 29 29
r 0.759 0 1 cbr 500 ------- 0 0.0 2.0 49 49
+ 0.759 1 2 cbr 500 ------- 0 0.0 2.0 49 49
+ 0.76 0 1 cbr 500 ------- 0 0.0 2.0 52 52
- 0.76 0 1 cbr 500 ------- 0 0.0 2.0 52 52
- 0.764 1 2 cbr 500 ------- 0 0.0 2.0 32 32
r 0.764 0 1 cbr 500 ------- 0 0.0 2.0 50 50
+ 0.764 1 2 cbr 500 ------- 0 0.0 2.0 50 50
+ 0.765 0 1 cbr 500 ------- 0 0.0 2.0 53 53
- 0.765 0 1 cbr 500 ------- 0 0.0 2.0 53 53
r 0.766188 1 2 cbr 500 ------- 0 0.0 2.0 30 30
r 0.769 0 1 cbr 500 ------- 0 0.0 2.0 51 51
+ 0.769 1 2 cbr 500 ------- 0 0.0 2.0 51 51
+ 0.77 0 1 cbr 500 ------- 0 0.0 2.0 54 54
- 0.77 0 1 cbr 500 ------- 0 0.0 2.0 54 54
- 0.771813 1 2 cbr 500 ------- 0 0.0 2.0 33 33
r 0.774 1 2 cbr 500 ------- 0 0.0 2.0 31 31
r 0.774 0 1 cbr 500 ------- 0 0.0 2.0 52 52
+ 0.774 1 2 cbr 500 ------- 0 0.0 2.0 52 52
+ 0.775 0 1 cbr 500 ------- 0 0.0 2.0 55 55
- 0.775 0 1 cbr 500 ------- 0 0.0 2.0 55 55
r 0.779 0 1 cbr 500 ------- 0 0.0 2.0 53 53
+ 0.779 1 2 cbr 500 ------- 0 0.0 2.0 53 53
- 0.779625 1 2 cbr 500 ------- 0 0.0 2.0 34 34
+ 0.78 0 1 cbr 500 ------- 0 0.0 2.0 56 56
- 0.78 0 1 cbr 500 ------- 0 0.0 2.0 56 56
r 0.781813 1 2 cbr 500 ------- 0 0.0 2.0 32 32
r 0.784 0 1 cbr 500 ------- 0 0.0 2.0 54 54
+ 0.784 1 2 cbr 500 ------- 0 0.0 2.0 54 54
+ 0.785 0 1 cbr 500 ------- 0 0.0 2.0 57 57
- 0.785 0 1 cbr 500 ------- 0 0.0 2.0 57 57
- 0.787438 1 2 cbr 500 ------- 0 0.0 2.0 35 35
r 0.789 0 1 cbr 500 ------- 0 0.0 2.0 55 55
+ 0.789 1 2 cbr 500 ------- 0 0.0 2.0 55 55
r 0.789625 1 2 cbr 500 ------- 0 0.0 2.0 33 33
+ 0.79 0 1 cbr 500 ------- 0 0.0 2.0 58 58
- 0.79 0 1 cbr 500 ------- 0 0.0 2.0 58 58
r 0.794 0 1 cbr 500 ------- 0 0.0 2.0 56 56
+ 0.794 1 2 cbr 500 ------- 0 0.0 2.0 56 56
+ 0.795 0 1 cbr 500 ------- 0 0.0 2.0 59 59
- 0.795 0 1 cbr 500 ------- 0 0.0 2.0 59 59
- 0.79525 1 2 cbr 500 ------- 0 0.0 2.0 36 36
r 0.797438 1 2 cbr 500 ------- 0 0.0 2.0 34 34
r 0.799 0 1 cbr 500 ------- 0 0.0 2.0 57 57
+ 0.799 1 2 cbr 500 ------- 0 0.0 2.0 57 57
+ 0.8 0 1 cbr 500 ------- 0 0.0 2.0 60 60
- 0.8 0 1 cbr 500 ------- 0 0.0 2.0 60 60
- 0.803063 1 2 cbr 500 ------- 0 0.0 2.0 37 37
r 0.804 0 1 cbr 500 ------- 0 0.0 2.0 58 58
+ 0.804 1 2 cbr 500 ------- 0 0.0 2.0 58 58
+ 0.805 0 1 cbr 500 ------- 0 0.0 2.0 61 61
- 0.805 0 1 cbr 500 ------- 0 0.0 2.0 61 61
r 0.80525 1 2 cbr 500 ------- 0 0.0 2.0 35 35
r 0.809 0 1 cbr 500 ------- 0 0.0 2.0 59 59
+ 0.809 1 2 cbr 500 ------- 0 0.0 2.0 59 59
+ 0.81 0 1 cbr 500 ------- 0 0.0 2.0 62 62
- 0.81 0 1 cbr 500 ------- 0 0.0 2.0 62 62
- 0.810875 1 2 cbr 500 ------- 0 0.0 2.0 38 38
r 0.813063 1 2 cbr 500 ------- 0 0.0 2.0 36 36
r 0.814 0 1 cbr 500 ------- 0 0.0 2.0 60 60
+ 0.814 1 2 cbr 500 ------- 0 0.0 2.0 60 60
+ 0.815 0 1 cbr 500 ------- 0 0.0 2.0 63 63
- 0.815 0 1 cbr 500 ------- 0 0.0 2.0 63 63
- 0.818688 1 2 cbr 500 ------- 0 0.0 2.0 39 39
r 0.819 0 1 cbr 500 ------- 0 0.0 2.0 61 61
+ 0.819 1 2 cbr 500 ------- 0 0.0 2.0 61 61
+ 0.82 0 1 cbr 500 ------- 0 0.0 2.0 64 64
- 0.82 0 1 cbr 500 ------- 0 0.0 2.0 64 64
r 0.820875 1 2 cbr 500 ------- 0 0.0 2.0 37 37
r 0.824 0 1 cbr 500 ------- 0 0.0 2.0 62 62
+ 0.824 1 2 cbr 500 ------- 0 0.0 2.0 62 62
+ 0.825 0 1 cbr 500 ------- 0 0.0 2.0 65 65
- 0.825 0 1 cbr 500 ------- 0 0.0 2.0 65 65
- 0.8265 1 2 cbr 500 ------- 0 0.0 2.0 40 40
r 0.828688 1 2 cbr 500 ------- 0 0.0 2.0 38 38
r 0.829 0 1 cbr 500 ------- 0 0.0 2.0 63 63
+ 0.829 1 2 cbr 500 ------- 0 0.0 2.0 63 63
+ 0.83 0 1 cbr 500 ------- 0 0.0 2.0 66 66
- 0.83 0 1 cbr 500 ------- 0 0.0 2.0 66 66
r 0.834 0 1 cbr 500 ------- 0 0.0 2.0 64 64
+ 0.834 1 2 cbr 500 ------- 0 0.0 2.0 64 64
- 0.834313 1 2 cbr 500 ------- 0 0.0 2.0 41 41
+ 0.835 0 1 cbr 500 ------- 0 0.0 2.0 67 67
- 0.835 0 1 cbr 500 ------- 0 0.0 2.0 67 67
r 0.8365 1 2 cbr 500 ------- 0 0.0 2.0 39 39
r 0.839 0 1 cbr 500 ------- 0 0.0 2.0 65 65
+ 0.839 1 2 cbr 500 ------- 0 0.0 2.0 65 65
+ 0.84 0 1 cbr 500 ------- 0 0.0 2.0 68 68
- 0.84 0 1 cbr 500 ------- 0 0.0 2.0 68 68
- 0.842125 1 2 cbr 500 ------- 0 0.0 2.0 42 42
r 0.844 0 1 cbr 500 ------- 0 0.0 2.0 66 66
+ 0.844 1 2 cbr 500 ------- 0 0.0 2.0 66 66
r 0.844313 1 2 cbr 500 ------- 0 0.0 2.0 40 40
+ 0.845 0 1 cbr 500 ------- 0 0.0 2.0 69 69
- 0.845 0 1 cbr 500 ------- 0 0.0 2.0 69 69
r 0.849 0 1 cbr 500 ------- 0 0.0 2.0 67 67
+ 0.849 1 2 cbr 500 ------- 0 0.0 2.0 67 67
- 0.849938 1 2 cbr 500 ------- 0 0.0 2.0 43 43
+ 0.85 0 1 cbr 500 ------- 0 0.0 2.0 70 70
- 0.85 0 1 cbr 500 ------- 0 0.0 2.0 70 70
r 0.852125 1 2 cbr 500 ------- 0 0.0 2.0 41 41
r 0.854 0 1 cbr 500 ------- 0 0.0 2.0 68 68
+ 0.854 1 2 cbr 500 ------- 0 0.0 2.0 68 68
+ 0.855 0 1 cbr 500 ------- 0 0.0 2.0 71 71
- 0.855 0 1 cbr 500 ------- 0 0.0 2.0 71 71
- 0.85775 1 2 cbr 500 ------- 0 0.0 2.0 44 44
r 0.859 0 1 cbr 500 ------- 0 0.0 2.0 69 69
+ 0.859 1 2 cbr 500 ------- 0 0.0 2.0 69 69
r 0.859938 1 2 cbr 500 ------- 0 0.0 2.0 42 42
+ 0.86 0 1 cbr 500 ------- 0 0.0 2.0 72 72
- 0.86 0 1 cbr 500 ------- 0 0.0 2.0 72 72
r 0.864 0 1 cbr 500 ------- 0 0.0 2.0 70 70
+ 0.864 1 2 cbr 500 ------- 0 0.0 2.0 70 70
+ 0.865 0 1 cbr 500 ------- 0 0.0 2.0 73 73
- 0.865 0 1 cbr 500 ------- 0 0.0 2.0 73 73
- 0.865563 1 2 cbr 500 ------- 0 0.0 2.0 45 45
r 0.86775 1 2 cbr 500 ------- 0 0.0 2.0 43 43
r 0.869 0 1 cbr 500 ------- 0 0.0 2.0 71 71
+ 0.869 1 2 cbr 500 ------- 0 0.0 2.0 71 71
+ 0.87 0 1 cbr 500 ------- 0 0.0 2.0 74 74
- 0.87 0 1 cbr 500 ------- 0 0.0 2.0 74 74
- 0.873375 1 2 cbr 500 ------- 0 0.0 2.0 46 46
r 0.874 0 1 cbr 500 ------- 0 0.0 2.0 72 72
+ 0.874 1 2 cbr 500 ------- 0 0.0 2.0 72 72
+ 0.875 0 1 cbr 500 ------- 0 0.0 2.0 75 75
- 0.875 0 1 cbr 500 ------- 0 0.0 2.0 75 75
r 0.875563 1 2 cbr 500 ------- 0 0.0 2.0 44 44
r 0.879 0 1 cbr 500 ------- 0 0.0 2.0 73 73
+ 0.879 1 2 cbr 500 ------- 0 0.0 2.0 73 73
+ 0.88 0 1 cbr 500 ------- 0 0.0 2.0 76 76
- 0.88 0 1 cbr 500 ------- 0 0.0 2.0 76 76
- 0.881188 1 2 cbr 500 ------- 0 0.0 2.0 47 47
r 0.883375 1 2 cbr 500 ------- 0 0.0 2.0 45 45
r 0.884 0 1 cbr 500 ------- 0 0.0 2.0 74 74
+ 0.884 1 2 cbr 500 ------- 0 0.0 2.0 74 74
+ 0.885 0 1 cbr 500 ------- 0 0.0 2.0 77 77
- 0.885 0 1 cbr 500 ------- 0 0.0 2.0 77 77
- 0.889 1 2 cbr 500 ------- 0 0.0 2.0 48 48
r 0.889 0 1 cbr 500 ------- 0 0.0 2.0 75 75
+ 0.889 1 2 cbr 500 ------- 0 0.0 2.0 75 75
+ 0.89 0 1 cbr 500 ------- 0 0.0 2.0 78 78
- 0.89 0 1 cbr 500 ------- 0 0.0 2.0 78 78
r 0.891188 1 2 cbr 500 ------- 0 0.0 2.0 46 46
r 0.894 0 1 cbr 500 ------- 0 0.0 2.0 76 76
+ 0.894 1 2 cbr 500 ------- 0 0.0 2.0 76 76
+ 0.895 0 1 cbr 500 ------- 0 0.0 2.0 79 79
- 0.895 0 1 cbr 500 ------- 0 0.0 2.0 79 79
- 0.896813 1 2 cbr 500 ------- 0 0.0 2.0 49 49
r 0.899 1 2 cbr 500 ------- 0 0.0 2.0 47 47
r 0.899 0 1 cbr 500 ------- 0 0.0 2.0 77 77
+ 0.899 1 2 cbr 500 ------- 0 0.0 2.0 77 77
+ 0.9 0 1 cbr 500 ------- 0 0.0 2.0 80 80
- 0.9 0 1 cbr 500 ------- 0 0.0 2.0 80 80
r 0.904 0 1 cbr 500 ------- 0 0.0 2.0 78 78
+ 0.904 1 2 cbr 500 ------- 0 0.0 2.0 78 78
- 0.904625 1 2 cbr 500 ------- 0 0.0 2.0 50 50
+ 0.905 0 1 cbr 500 ------- 0 0.0 2.0 81 81
- 0.905 0 1 cbr 500 ------- 0 0.0 2.0 81 81
r 0.906813 1 2 cbr 500 ------- 0 0.0 2.0 48 48
r 0.909 0 1 cbr 500 ------- 0 0.0 2.0 79 79
+ 0.909 1 2 cbr 500 ------- 0 0.0 2.0 79 79
+ 0.91 0 1 cbr 500 ------- 0 0.0 2.0 82 82
- 0.91 0 1 cbr 500 ------- 0 0.0 2.0 82 82
- 0.912438 1 2 cbr 500 ------- 0 0.0 2.0 51 51
r 0.914 0 1 cbr 500 ------- 0 0.0 2.0 80 80
+ 0.914 1 2 cbr 500 ------- 0 0.0 2.0 80 80
r 0.914625 1 2 cbr 500 ------- 0 0.0 2.0 49 49
+ 0.915 0 1 cbr 500 ------- 0 0.0 2.0 83 83
- 0.915 0 1 cbr 500 ------- 0 0.0 2.0 83 83
r 0.919 0 1 cbr 500 ------- 0 0.0 2.0 81 81
+ 0.919 1 2 cbr 500 ------- 0 0.0 2.0 81 81
+ 0.92 0 1 cbr 500 ------- 0 0.0 2.0 84 84
- 0.92 0 1 cbr 500 ------- 0 0.0 2.0 84 84
- 0.92025 1 2 cbr 500 ------- 0 0.0 2.0 52 52
r 0.922438 1 2 cbr 500 ------- 0 0.0 2.0 50 50
r 0.924 0 1 cbr 500 ------- 0 0.0 2.0 82 82
+ 0.924 1 2 cbr 500 ------- 0 0.0 2.0 82 82
+ 0.925 0 1 cbr 500 ------- 0 0.0 2.0 85 85
- 0.925 0 1 cbr 500 ------- 0 0.0 2.0 85 85
- 0.928063 1 2 cbr 500 ------- 0 0.0 2.0 53 53
r 0.929 0 1 cbr 500 ------- 0 0.0 2.0 83 83
+ 0.929 1 2 cbr 500 ------- 0 0.0 2.0 83 83
+ 0.93 0 1 cbr 500 ------- 0 0.0 2.0 86 86
- 0.93 0 1 cbr 500 ------- 0 0.0 2.0 86 86
r 0.93025 1 2 cbr 500 ------- 0 0.0 2.0 51 51
r 0.934 0 1 cbr 500 ------- 0 0.0 2.0 84 84
+ 0.934 1 2 cbr 500 ------- 0 0.0 2.0 84 84
+ 0.935 0 1 cbr 500 ------- 0 0.0 2.0 87 87
- 0.935 0 1 cbr 500 ------- 0 0.0 2.0 87 87
- 0.935875 1 2 cbr 500 ------- 0 0.0 2.0 54 54
r 0.938063 1 2 cbr 500 ------- 0 0.0 2.0 52 52
r 0.939 0 1 cbr 500 ------- 0 0.0 2.0 85 85
+ 0.939 1 2 cbr 500 ------- 0 0.0 2.0 85 85
+ 0.94 0 1 cbr 500 ------- 0 0.0 2.0 88 88
- 0.94 0 1 cbr 500 ------- 0 0.0 2.0 88 88
- 0.943688 1 2 cbr 500 ------- 0 0.0 2.0 55 55
r 0.944 0 1 cbr 500 ------- 0 0.0 2.0 86 86
+ 0.944 1 2 cbr 500 ------- 0 0.0 2.0 86 86
+ 0.945 0 1 cbr 500 ------- 0 0.0 2.0 89 89
- 0.945 0 1 cbr 500 ------- 0 0.0 2.0 89 89
r 0.945875 1 2 cbr 500 ------- 0 0.0 2.0 53 53
r 0.949 0 1 cbr 500 ------- 0 0.0 2.0 87 87
+ 0.949 1 2 cbr 500 ------- 0 0.0 2.0 87 87
+ 0.95 0 1 cbr 500 ------- 0 0.0 2.0 90 90
- 0.95 0 1 cbr 500 ------- 0 0.0 2.0 90 90
- 0.9515 1 2 cbr 500 ------- 0 0.0 2.0 56 56
r 0.953688 1 2 cbr 500 ------- 0 0.0 2.0 54 54
r 0.954 0 1 cbr 500 ------- 0 0.0 2.0 88 88
+ 0.954 1 2 cbr 500 ------- 0 0.0 2.0 88 88
+ 0.955 0 1 cbr 500 ------- 0 0.0 2.0 91 91
- 0.955 0 1 cbr 500 ------- 0 0.0 2.0 91 91
r 0.959 0 1 cbr 500 ------- 0 0.0 2.0 89 89
+ 0.959 1 2 cbr 500 ------- 0 0.0 2.0 89 89
- 0.959313 1 2 cbr 500 ------- 0 0.0 2.0 57 57
+ 0.96 0 1 cbr 500 ------- 0 0.0 2.0 92 92
- 0.96 0 1 cbr 500 ------- 0 0.0 2.0 92 92
r 0.9615 1 2 cbr 500 ------- 0 0.0 2.0 55 55
r 0.964 0 1 cbr 500 ------- 0 0.0 2.0 90 90
+ 0.964 1 2 cbr 500 ------- 0 0.0 2.0 90 90
+ 0.965 0 1 cbr 500 ------- 0 0.0 2.0 93 93
- 0.965 0 1 cbr 500 ------- 0 0.0 2.0 93 93
- 0.967125 1 2 cbr 500 ------- 0 0.0 2.0 58 58
r 0.969 0 1 cbr 500 ------- 0 0.0 2.0 91 91
+ 0.969 1 2 cbr 500 ------- 0 0.0 2.0 91 91
r 0.969313 1 2 cbr 500 ------- 0 0.0 2.0 56 56
+ 0.97 0 1 cbr 500 ------- 0 0.0 2.0 94 94
- 0.97 0 1 cbr 500 ------- 0 0.0 2.0 94 94
r 0.974 0 1 cbr 500 ------- 0 0.0 2.0 92 92
+ 0.974 1 2 cbr 500 ------- 0 0.0 2.0 92 92
- 0.974938 1 2 cbr 500 ------- 0 0.0 2.0 59 59
+ 0.975 0 1 cbr 500 ------- 0 0.0 2.0 95 95
- 0.975 0 1 cbr 500 ------- 0 0.0 2.0 95 95
r 0.977125 1 2 cbr 500 ------- 0 0.0 2.0 57 57
r 0.979 0 1 cbr 500 ------- 0 0.0 2.0 93 93
+ 0.979 1 2 cbr 500 ------- 0 0.0 2.0 93 93
+ 0.98 0 1 cbr 500 ------- 0 0.0 2.0 96 96
- 0.98 0 1 cbr 500 ------- 0 0.0 2.0 96 96
- 0.98275 1 2 cbr 500 ------- 0 0.0 2.0 60 60
r 0.984 0 1 cbr 500 ------- 0 0.0 2.0 94 94
+ 0.984 1 2 cbr 500 ------- 0 0.0 2.0 94 94
r 0.984938 1 2 cbr 500 ------- 0 0.0 2.0 58 58
+ 0.985 0 1 cbr 500 ------- 0 0.0 2.0 97 97
- 0.985 0 1 cbr 500 ------- 0 0.0 2.0 97 97
r 0.989 0 1 cbr 500 ------- 0 0.0 2.0 95 95
+ 0.989 1 2 cbr 500 ------- 0 0.0 2.0 95 95
+ 0.99 0 1 cbr 500 ------- 0 0.0 2.0 98 98
- 0.99 0 1 cbr 500 ------- 0 0.0 2.0 98 98
- 0.990563 1 2 cbr 500 ------- 0 0.0 2.0 61 61
r 0.99275 1 2 cbr 500 ------- 0 0.0 2.0 59 59
r 0.994 0 1 cbr 500 ------- 0 0.0 2.0 96 96
+ 0.994 1 2 cbr 500 ------- 0 0.0 2.0 96 96
+ 0.995 0 1 cbr 500 ------- 0 0.0 2.0 99 99
- 0.995 0 1 cbr 500 ------- 0 0.0 2.0 99 99
- 0.998375 1 2 cbr 500 ------- 0 0.0 2.0 62 62
r 0.999 0 1 cbr 500 ------- 0 0.0 2.0 97 97
+ 0.999 1 2 cbr 500 ------- 0 0.0 2.0 97 97
+ 1 0 1 cbr 500 ------- 0 0.0 2.0 100 100
- 1 0 1 cbr 500 ------- 0 0.0 2.0 100 100
r 1.000563 1 2 cbr 500 ------- 0 0.0 2.0 60 60
r 1.004 0 1 cbr 500 ------- 0 0.0 2.0 98 98
+ 1.004 1 2 cbr 500 ------- 0 0.0 2.0 98 98
+ 1.005 0 1 cbr 500 ------- 0 0.0 2.0 101 101
- 1.005 0 1 cbr 500 ------- 0 0.0 2.0 101 101
- 1.006188 1 2 cbr 500 ------- 0 0.0 2.0 63 63
r 1.008375 1 2 cbr 500 ------- 0 0.0 2.0 61 61
r 1.009 0 1 cbr 500 ------- 0 0.0 2.0 99 99
+ 1.009 1 2 cbr 500 ------- 0 0.0 2.0 99 99
+ 1.01 0 1 cbr 500 ------- 0 0.0 2.0 102 102
- 1.01 0 1 cbr 500 ------- 0 0.0 2.0 102 102
- 1.014 1 2 cbr 500 ------- 0 0.0 2.0 64 64
r 1.014 0 1 cbr 500 ------- 0 0.0 2.0 100 100
+ 1.014 1 2 cbr 500 ------- 0 0.0 2.0 100 100
+ 1.015 0 1 cbr 500 ------- 0 0.0 2.0 103 103
- 1.015 0 1 cbr 500 ------- 0 0.0 2.0 103 103
r 1.016188 1 2 cbr 500 ------- 0 0.0 2.0 62 62
r 1.019 0 1 cbr 500 ------- 0 0.0 2.0 101 101
+ 1.019 1 2 cbr 500 ------- 0 0.0 2.0 101 101
+ 1.02 0 1 cbr 500 ------- 0 0.0 2.0 104 104
- 1.02 0 1 cbr 500 ------- 0 0.0 2.0 104 104
- 1.021813 1 2 cbr 500 ------- 0 0.0 2.0 65 65
r 1.024 1 2 cbr 500 ------- 0 0.0 2.0 63 63
r 1.024 0 1 cbr 500 ------- 0 0.0 2.0 102 102
+ 1.024 1 2 cbr 500 ------- 0 0.0 2.0 102 102
+ 1.025 0 1 cbr 500 ------- 0 0.0 2.0 105 105
- 1.025 0 1 cbr 500 ------- 0 0.0 2.0 105 105
r 1.029 0 1 cbr 500 ------- 0 0.0 2.0 103 103
+ 1.029 1 2 cbr 500 ------- 0 0.0 2.0 103 103
- 1.029625 1 2 cbr 500 ------- 0 0.0 2.0 66 66
+ 1.03 0 1 cbr 500 ------- 0 0.0 2.0 106 106
- 1.03 0 1 cbr 500 ------- 0 0.0 2.0 106 106
r 1.031813 1 2 cbr 500 ------- 0 0.0 2.0 64 64
r 1.034 0 1 cbr 500 ------- 0 0.0 2.0 104 104
+ 1.034 1 2 cbr 500 ------- 0 0.0 2.0 104 104
+ 1.035 0 1 cbr 500 ------- 0 0.0 2.0 107 107
- 1.035 0 1 cbr 500 ------- 0 0.0 2.0 107 107
- 1.037438 1 2 cbr 500 ------- 0 0.0 2.0 67 67
r 1.039 0 1 cbr 500 ------- 0 0.0 2.0 105 105
+ 1.039 1 2 cbr 500 ------- 0 0.0 2.0 105 105
r 1.039625 1 2 cbr 500 ------- 0 0.0 2.0 65 65
+ 1.04 0 1 cbr 500 ------- 0 0.0 2.0 108 108
- 1.04 0 1 cbr 500 ------- 0 0.0 2.0 108 108
r 1.044 0 1 cbr 500 ------- 0 0.0 2.0 106 106
+ 1.044 1 2 cbr 500 ------- 0 0.0 2.0 106 106
+ 1.045 0 1 cbr 500 ------- 0 0.0 2.0 109 109
- 1.045 0 1 cbr 500 ------- 0 0.0 2.0 109 109
- 1.04525 1 2 cbr 500 ------- 0 0.0 2.0 68 68
r 1.047438 1 2 cbr 500 ------- 0 0.0 2.0 66 66
r 1.049 0 1 cbr 500 ------- 0 0.0 2.0 107 107
+ 1.049 1 2 cbr 500 ------- 0 0.0 2.0 107 107
+ 1.05 0 1 cbr 500 ------- 0 0.0 2.0 110 110
- 1.05 0 1 cbr 500 ------- 0 0.0 2.0 110 110
- 1.053063 1 2 cbr 500 ------- 0 0.0 2.0 69 69
r 1.054 0 1 cbr 500 ------- 0 0.0 2.0 108 108
+ 1.054 1 2 cbr 500 ------- 0 0.0 2.0 108 108
+ 1.055 0 1 cbr 500 ------- 0 0.0 2.0 111 111
- 1.055 0 1 cbr 500 ------- 0 0.0 2.0 111 111
r 1.05525 1 2 cbr 500 ------- 0 0.0 2.0 67 67
r 1.059 0 1 cbr 500 ------- 0 0.0 2.0 109 109
+ 1.059 1 2 cbr 500 ------- 0 0.0 2.0 109 109
+ 1.06 0 1 cbr 500 ------- 0 0.0 2.0 112 112
- 1.06 0 1 cbr 500 ------- 0 0.0 2.0 112 112
- 1.060875 1 2 cbr 500 ------- 0 0.0 2.0 70 70
r 1.063063 1 2 cbr 500 ------- 0 0.0 2.0 68 68
r 1.064 0 1 cbr 500 ------- 0 0.0 2.0 110 110
+ 1.064 1 2 cbr 500 ------- 0 0.0 2.0 110 110
+ 1.065 0 1 cbr 500 ------- 0 0.0 2.0 113 113
- 1.065 0 1 cbr 500 ------- 0 0.0 2.0 113 113
- 1.068688 1 2 cbr 500 ------- 0 0.0 2.0 71 71
r 1.069 0 1 cbr 500 ------- 0 0.0 2.0 111 111
+ 1.069 1 2 cbr 500 ------- 0 0.0 2.0 111 111
+ 1.07 0 1 cbr 500 ------- 0 0.0 2.0 114 114
- 1.07 0 1 cbr 500 ------- 0 0.0 2.0 114 114
r 1.070875 1 2 cbr 500 ------- 0 0.0 2.0 69 69
r 1.074 0 1 cbr 500 ------- 0 0.0 2.0 112 112
+ 1.074 1 2 cbr 500 ------- 0 0.0 2.0 112 112
+ 1.075 0 1 cbr 500 ------- 0 0.0 2.0 115 115
- 1.075 0 1 cbr 500 ------- 0 0.0 2.0 115 115
- 1.0765 1 2 cbr 500 ------- 0 0.0 2.0 72 72
r 1.078688 1 2 cbr 500 ------- 0 0.0 2.0 70 70
r 1.079 0 1 cbr 500 ------- 0 0.0 2.0 113 113
+ 1.079 1 2 cbr 500 ------- 0 0.0 2.0 113 113
+ 1.08 0 1 cbr 500 ------- 0 0.0 2.0 116 116
- 1.08 0 1 cbr 500 ------- 0 0.0 2.0 116 116
r 1.084 0 1 cbr 500 ------- 0 0.0 2.0 114 114
+ 1.084 1 2 cbr 500 ------- 0 0.0 2.0 114 114
- 1.084313 1 2 cbr 500 ------- 0 0.0 2.0 73 73
+ 1.085 0 1 cbr 500 ------- 0 0.0 2.0 117 117
- 1.085 0 1 cbr 500 ------- 0 0.0 2.0 117 117
r 1.0865 1 2 cbr 500 ------- 0 0.0 2.0 71 71
r 1.089 0 1 cbr 500 ------- 0 0.0 2.0 115 115
+ 1.089 1 2 cbr 500 ------- 0 0.0 2.0 115 115
+ 1.09 0 1 cbr 500 ------- 0 0.0 2.0 118 118
- 1.09 0 1 cbr 500 ------- 0 0.0 2.0 118 118
- 1.092125 1 2 cbr 500 ------- 0 0.0 2.0 74 74
r 1.094 0 1 cbr 500 ------- 0 0.0 2.0 116 116
+ 1.094 1 2 cbr 500 ------- 0 0.0 2.0 116 116
r 1.094313 1 2 cbr 500 ------- 0 0.0 2.0 72 72
+ 1.095 0 1 cbr 500 ------- 0 0.0 2.0 119 119
- 1.095 0 1 cbr 500 ------- 0 0.0 2.0 119 119
r 1.099 0 1 cbr 500 ------- 0 0.0 2.0 117 117
+ 1.099 1 2 cbr 500 ------- 0 0.0 2.0 117 117
- 1.099938 1 2 cbr 500 ------- 0 0.0 2.0 75 75
+ 1.1 0 1 cbr 500 ------- 0 0.0 2.0 120 120
- 1.1 0 1 cbr 500 ------- 0 0.0 2.0 120 120
r 1.102125 1 2 cbr 500 ------- 0 0.0 2.0 73 73
r 1.104 0 1 cbr 500 ------- 0 0.0 2.0 118 118
+ 1.104 1 2 cbr 500 ------- 0 0.0 2.0 118 118
+ 1.105 0 1 cbr 500 ------- 0 0.0 2.0 121 121
- 1.105 0 1 cbr 500 ------- 0 0.0 2.0 121 121
- 1.10775 1 2 cbr 500 ------- 0 0.0 2.0 76 76
r 1.109 0 1 cbr 500 ------- 0 0.0 2.0 119 119
+ 1.109 1 2 cbr 500 ------- 0 0.0 2.0 119 119
r 1.109938 1 2 cbr 500 ------- 0 0.0 2.0 74 74
+ 1.11 0 1 cbr 500 ------- 0 0.0 2.0 122 122
- 1.11 0 1 cbr 500 ------- 0 0.0 2.0 122 122
r 1.114 0 1 cbr 500 ------- 0 0.0 2.0 120 120
+ 1.114 1 2 cbr 500 ------- 0 0.0 2.0 120 120
+ 1.115 0 1 cbr 500 ------- 0 0.0 2.0 123 123
- 1.115 0 1 cbr 500 ------- 0 0.0 2.0 123 123
- 1.115563 1 2 cbr 500 ------- 0 0.0 2.0 77 77
r 1.11775 1 2 cbr 500 ------- 0 0.0 2.0 75 75
r 1.119 0 1 cbr 500 ------- 0 0.0 2.0 121 121
+ 1.119 1 2 cbr 500 ------- 0 0.0 2.0 121 121
+ 1.12 0 1 cbr 500 ------- 0 0.0 2.0 124 124
- 1.12 0 1 cbr 500 ------- 0 0.0 2.0 124 124
- 1.123375 1 2 cbr 500 ------- 0 0.0 2.0 78 78
r 1.124 0 1 cbr 500 ------- 0 0.0 2.0 122 122
+ 1.124 1 2 cbr 500 ------- 0 0.0 2.0 122 122
+ 1.125 0 1 cbr 500 ------- 0 0.0 2.0 125 125
- 1.125 0 1 cbr 500 ------- 0 0.0 2.0 125 125
r 1.125563 1 2 cbr 500 ------- 0 0.0 2.0 76 76
r 1.129 0 1 cbr 500 ------- 0 0.0 2.0 123 123
+ 1.129 1 2 cbr 500 ------- 0 0.0 2.0 123 123
+ 1.13 0 1 cbr 500 ------- 0 0.0 2.0 126 126
- 1.13 0 1 cbr 500 ------- 0 0.0 2.0 126 126
- 1.131188 1 2 cbr 500 ------- 0 0.0 2.0 79 79
r 1.133375 1 2 cbr 500 ------- 0 0.0 2.0 77 77
r 1.134 0 1 cbr 500 ------- 0 0.0 2.0 124 124
+ 1.134 1 2 cbr 500 ------- 0 0.0 2.0 124 124
+ 1.135 0 1 cbr 500 ------- 0 0.0 2.0 127 127
- 1.135 0 1 cbr 500 ------- 0 0.0 2.0 127 127
r 1.139 0 1 cbr 500 ------- 0 0.0 2.0 125 125
+ 1.139 1 2 cbr 500 ------- 0 0.0 2.0 125 125
- 1.139 1 2 cbr 500 ------- 0 0.0 2.0 80 80
+ 1.14 0 1 cbr 500 ------- 0 0.0 2.0 128 128
- 1.14 0 1 cbr 500 ------- 0 0.0 2.0 128 128
r 1.141188 1 2 cbr 500 ------- 0 0.0 2.0 78 78
r 1.144 0 1 cbr 500 ------- 0 0.0 2.0 126 126
+ 1.144 1 2 cbr 500 ------- 0 0.0 2.0 126 126
+ 1.145 0 1 cbr 500 ------- 0 0.0 2.0 129 129